 Gaussian 16, Revision C.01,
 Gaussian 16:  ES64L-G16RevC.01  3-Jul-2019

 -------------------------------------------------------
 #n TPSSTPSS/Gen Pseudo=Read EmpiricalDispersion=GD3 opt
 -------------------------------------------------------

 -----
 Title
 -----
 Symbolic Z-matrix:
 Charge =  0 Multiplicity = 1

 SCF Done:  E(RTPSS-TPSS) =  -1535.09345286     A.U. after   18 cycles
 SCF Done:  E(RTPSS-TPSS) =  -1535.14303353     A.U. after   14 cycles
 SCF Done:  E(RTPSS-TPSS) =  -1535.15095163     A.U. after   13 cycles
 SCF Done:  E(RTPSS-TPSS) =  -1535.15149491     A.U. after   13 cycles
 SCF Done:  E(RTPSS-TPSS) =  -1535.15161529     A.U. after   12 cycles
 SCF Done:  E(RTPSS-TPSS) =  -1535.15163653     A.U. after   11 cycles
 SCF Done:  E(RTPSS-TPSS) =  -1535.15164334     A.U. after   11 cycles
 SCF Done:  E(RTPSS-TPSS) =  -1535.15164455     A.U. after    9 cycles
 SCF Done:  E(RTPSS-TPSS) =  -1535.15164484     A.U. after    9 cycles
 Optimization completed.
    -- Stationary point found.

                         Standard orientation:
 ---------------------------------------------------------------------
 Center     Atomic      Atomic             Coordinates (Angstroms)
 Number     Number       Type             X           Y           Z
 ---------------------------------------------------------------------
      1         27           0        1.370755   -0.000075    0.071364
      2         16           0       -1.992863    0.000463    0.066890
      3          6           0       -0.420956    0.004452    1.041309
      4          6           0        0.903215    1.595548   -0.654596
      5          8           0        0.645976    2.627048   -1.106875
      6          6           0        2.961315   -0.005035   -0.763593
      7          8           0        3.982339   -0.008513   -1.305188
      8          6           0        2.073719    0.011139    1.737286
      9          8           0        2.501394    0.018730    2.813137
     10          6           0        0.903189   -1.603583   -0.636252
     11          8           0        0.645286   -2.640130   -1.076518
     12          9           0       -1.304824   -0.008000   -1.432335
     13          9           0       -3.438681   -0.002354   -0.691256
     14          9           0       -2.037284   -1.647022    0.033751
     15          9           0       -2.034722    1.647553    0.016512
     16          9           0       -2.833184    0.008453    1.489756
     17          1           0       -0.504749   -0.889746    1.661044
     18          1           0       -0.504413    0.904477    1.652654
 ---------------------------------------------------------------------

 The electronic state is 1-A.
 Alpha  occ. eigenvalues --  -88.71871 -24.44710 -24.44585 -24.44559 -24.44555
 Alpha  occ. eigenvalues --  -24.44304 -19.02641 -19.01546 -19.01058 -19.01056
 Alpha  occ. eigenvalues --  -10.15804 -10.14284 -10.13897 -10.13895 -10.06573
 Alpha  occ. eigenvalues --   -8.04043  -6.02426  -6.02422  -6.01841  -3.66043
 Alpha  occ. eigenvalues --   -2.40111  -2.37805  -2.37517  -1.22367  -1.13880
 Alpha  occ. eigenvalues --   -1.13781  -1.11584  -1.10221  -1.09797  -1.08602
 Alpha  occ. eigenvalues --   -1.08191  -1.08184  -0.76309  -0.66132  -0.57770
 Alpha  occ. eigenvalues --   -0.55178  -0.55003  -0.54312  -0.53719  -0.53572
 Alpha  occ. eigenvalues --   -0.51874  -0.46819  -0.45811  -0.45214  -0.45115
 Alpha  occ. eigenvalues --   -0.44443  -0.44045  -0.43588  -0.43372  -0.43289
 Alpha  occ. eigenvalues --   -0.42765  -0.42436  -0.42421  -0.42048  -0.41933
 Alpha  occ. eigenvalues --   -0.41437  -0.41425  -0.38705  -0.38487  -0.36470
 Alpha  occ. eigenvalues --   -0.36351  -0.36330  -0.34371  -0.33380  -0.33275
 Alpha  occ. eigenvalues --   -0.33016  -0.29918  -0.29398  -0.29308  -0.24983
 Alpha  occ. eigenvalues --   -0.24179
 Alpha virt. eigenvalues --   -0.11856  -0.09730  -0.09558  -0.08653  -0.07474
 Alpha virt. eigenvalues --   -0.06976  -0.06812  -0.06574  -0.05318  -0.04971
 Alpha virt. eigenvalues --    0.00745   0.01150   0.01412   0.03232   0.04168

 Mulliken charges:
               1
     1  Co  -0.148251
     2  S    1.711582
     3  C   -0.509061
     4  C    0.287348
     5  O   -0.229961
     6  C    0.298194
     7  O   -0.234893
     8  C    0.285604
     9  O   -0.241318
    10  C    0.287176
    11  O   -0.229955
    12  F   -0.335097
    13  F   -0.309863
    14  F   -0.349543
    15  F   -0.349522
    16  F   -0.341969
    17  H    0.204787
    18  H    0.204742
 Sum of Mulliken charges =  -0.00000

 Dipole moment (field-independent basis, Debye):
    X=              3.2734    Y=              0.0051    Z=              1.0042  Tot=              3.4239
 Quadrupole moment (field-independent basis, Debye-Ang):
   XX=           -105.1378   YY=           -102.3081   ZZ=           -100.4837
   XY=             -0.0088   XZ=             -1.6305   YZ=              0.0060

 Normal termination of Gaussian 16 at Sun Mar 24 20:13:49 2024.
