 Gaussian 16, Revision C.01,
 Gaussian 16:  ES64L-G16RevC.01  3-Jul-2019

 -------------------------------------------------------
 #n TPSSTPSS/Gen Pseudo=Read EmpiricalDispersion=GD3 opt
 -------------------------------------------------------

 -----
 Title
 -----
 Symbolic Z-matrix:
 Charge =  0 Multiplicity = 1

 SCF Done:  E(RTPSS-TPSS) =  -1921.08490250     A.U. after   20 cycles
 SCF Done:  E(RTPSS-TPSS) =  -1921.47279105     A.U. after   13 cycles
 SCF Done:  E(RTPSS-TPSS) =  -1921.84278301     A.U. after   14 cycles
 SCF Done:  E(RTPSS-TPSS) =  -1921.89933159     A.U. after   15 cycles
 SCF Done:  E(RTPSS-TPSS) =  -1921.94136613     A.U. after   14 cycles
 SCF Done:  E(RTPSS-TPSS) =  -1921.94643750     A.U. after   13 cycles
 SCF Done:  E(RTPSS-TPSS) =  -1921.94785113     A.U. after   12 cycles
 SCF Done:  E(RTPSS-TPSS) =  -1921.94759593     A.U. after   13 cycles
 SCF Done:  E(RTPSS-TPSS) =  -1921.94804899     A.U. after   13 cycles
 SCF Done:  E(RTPSS-TPSS) =  -1921.94809054     A.U. after   11 cycles
 SCF Done:  E(RTPSS-TPSS) =  -1921.94810315     A.U. after   11 cycles
 SCF Done:  E(RTPSS-TPSS) =  -1921.94810483     A.U. after    9 cycles
 SCF Done:  E(RTPSS-TPSS) =  -1921.94810593     A.U. after    9 cycles
 Optimization completed.
    -- Stationary point found.

                         Standard orientation:
 ---------------------------------------------------------------------
 Center     Atomic      Atomic             Coordinates (Angstroms)
 Number     Number       Type             X           Y           Z
 ---------------------------------------------------------------------
      1         77           0        0.490396    0.053473    0.074166
      2         17           0        0.157719    1.381992    2.011069
      3         17           0        0.495435   -1.940798    1.428310
      4         17           0        0.427623    2.034324   -1.305214
      5          7           0       -1.565227   -0.132108   -0.156906
      6          7           0        1.054759   -1.006235   -1.519225
      7          7           0        2.476299    0.156452    0.182533
      8          6           0       -2.126555   -1.343115   -0.405513
      9          6           0       -3.500419   -1.496951   -0.578952
     10          6           0       -4.331070   -0.373763   -0.483273
     11          6           0       -3.748917    0.868194   -0.210422
     12          6           0       -2.366111    0.960053   -0.051333
     13          6           0        2.349977   -1.133676   -1.724437
     14          6           0        3.166816   -0.470054   -0.739393
     15          1           0       -1.439845   -2.184637   -0.419526
     16          1           0       -3.903482   -2.486747   -0.774457
     17          1           0       -5.407414   -0.467046   -0.611719
     18          1           0       -4.350771    1.768245   -0.115892
     19          1           0       -1.858872    1.894307    0.163280
     20          1           0        0.430003   -1.430588   -2.208928
     21          1           0        2.754129   -1.680548   -2.572224
     22          1           0        4.253827   -0.473907   -0.757533
     23          1           0        2.965610    0.668828    0.920549
 ---------------------------------------------------------------------

 The electronic state is 1-A.
 Alpha  occ. eigenvalues -- -100.92561-100.92559-100.91773 -14.20534 -14.19840
 Alpha  occ. eigenvalues --  -14.19197 -10.09044 -10.09021 -10.06394 -10.05832
 Alpha  occ. eigenvalues --  -10.04280 -10.03546 -10.03257  -9.17591  -9.17582
 Alpha  occ. eigenvalues --   -9.16820  -6.95532  -6.95525  -6.94712  -6.94708
 Alpha  occ. eigenvalues --   -6.94683  -6.94678  -6.94655  -6.93978  -6.93941
 Alpha  occ. eigenvalues --   -3.61838  -2.06296  -2.05337  -2.04426  -0.93028
 Alpha  occ. eigenvalues --   -0.91587  -0.87590  -0.77160  -0.73267  -0.69659
 Alpha  occ. eigenvalues --   -0.68728  -0.68106  -0.67658  -0.60961  -0.60536
 Alpha  occ. eigenvalues --   -0.57517  -0.56142  -0.51601  -0.48050  -0.46854
 Alpha  occ. eigenvalues --   -0.46135  -0.45288  -0.42222  -0.41231  -0.40717
 Alpha  occ. eigenvalues --   -0.39812  -0.39429  -0.37391  -0.34994  -0.34276
 Alpha  occ. eigenvalues --   -0.34055  -0.31103  -0.30427  -0.28522  -0.28443
 Alpha  occ. eigenvalues --   -0.26705  -0.26383  -0.26117  -0.25059  -0.22974
 Alpha  occ. eigenvalues --   -0.22591  -0.20537  -0.20110  -0.19866  -0.18557
 Alpha virt. eigenvalues --   -0.14409  -0.08277  -0.08028  -0.05860  -0.04031
 Alpha virt. eigenvalues --   -0.01754   0.01419   0.02259   0.05294   0.05711
 Alpha virt. eigenvalues --    0.07861   0.08037   0.09090   0.10496   0.11884

 Mulliken charges:
               1
     1  Ir   0.087472
     2  Cl  -0.143350
     3  Cl  -0.174611
     4  Cl  -0.183785
     5  N   -0.474918
     6  N   -0.553024
     7  N   -0.525224
     8  C    0.138542
     9  C   -0.140376
    10  C   -0.065048
    11  C   -0.142696
    12  C    0.171998
    13  C    0.129860
    14  C    0.140144
    15  H    0.164509
    16  H    0.136228
    17  H    0.137071
    18  H    0.142251
    19  H    0.199689
    20  H    0.300069
    21  H    0.165177
    22  H    0.168348
    23  H    0.321672
 Sum of Mulliken charges =  -0.00000

 Dipole moment (field-independent basis, Debye):
    X=             -0.3321    Y=             -4.0026    Z=             -6.1487  Tot=              7.3442
 Quadrupole moment (field-independent basis, Debye-Ang):
   XX=            -76.4836   YY=           -125.6421   ZZ=           -125.7731
   XY=             -1.9853   XZ=             -2.2443   YZ=             12.9765

 Normal termination of Gaussian 16 at Mon Mar 25 09:04:41 2024.
