 Gaussian 16, Revision C.01,
 Gaussian 16:  ES64L-G16RevC.01  3-Jul-2019

 -------------------------------------------------------
 #n TPSSTPSS/Gen Pseudo=Read EmpiricalDispersion=GD3 opt
 -------------------------------------------------------

 -----
 Title
 -----
 Symbolic Z-matrix:
 Charge =  0 Multiplicity = 1

 SCF Done:  E(RTPSS-TPSS) =  -718.514417464     A.U. after   18 cycles
 SCF Done:  E(RTPSS-TPSS) =  -718.592386291     A.U. after   13 cycles
 SCF Done:  E(RTPSS-TPSS) =  -718.627529048     A.U. after   13 cycles
 SCF Done:  E(RTPSS-TPSS) =  -718.628030231     A.U. after   12 cycles
 SCF Done:  E(RTPSS-TPSS) =  -718.628770989     A.U. after   12 cycles
 SCF Done:  E(RTPSS-TPSS) =  -718.628858810     A.U. after   10 cycles
 SCF Done:  E(RTPSS-TPSS) =  -718.628921382     A.U. after   11 cycles
 SCF Done:  E(RTPSS-TPSS) =  -718.628940491     A.U. after   10 cycles
 SCF Done:  E(RTPSS-TPSS) =  -718.628967102     A.U. after   10 cycles
 SCF Done:  E(RTPSS-TPSS) =  -718.628980297     A.U. after   10 cycles
 SCF Done:  E(RTPSS-TPSS) =  -718.629015745     A.U. after   11 cycles
 SCF Done:  E(RTPSS-TPSS) =  -718.629016589     A.U. after   10 cycles
 SCF Done:  E(RTPSS-TPSS) =  -718.629017466     A.U. after   10 cycles
 SCF Done:  E(RTPSS-TPSS) =  -718.629017614     A.U. after   10 cycles
 SCF Done:  E(RTPSS-TPSS) =  -718.629017849     A.U. after   10 cycles
 SCF Done:  E(RTPSS-TPSS) =  -718.629017984     A.U. after    9 cycles
 SCF Done:  E(RTPSS-TPSS) =  -718.629018058     A.U. after    9 cycles
 SCF Done:  E(RTPSS-TPSS) =  -718.629018145     A.U. after    8 cycles
 SCF Done:  E(RTPSS-TPSS) =  -718.629018197     A.U. after    8 cycles
 SCF Done:  E(RTPSS-TPSS) =  -718.629018220     A.U. after    8 cycles
 Optimization completed.
    -- Stationary point found.

                         Standard orientation:
 ---------------------------------------------------------------------
 Center     Atomic      Atomic             Coordinates (Angstroms)
 Number     Number       Type             X           Y           Z
 ---------------------------------------------------------------------
      1         42           0       -0.456669   -0.064633    0.000037
      2          8           0       -1.095568    2.077391    2.231398
      3          8           0       -3.485329   -0.973345   -0.002553
      4          8           0       -1.093596    2.080469   -2.228932
      5          6           0       -0.900302    1.289138    1.384470
      6          6           0       -2.370746   -0.609474   -0.001555
      7          6           0       -0.899005    1.290998   -1.382983
      8          6           0        1.831707   -0.176368    0.713743
      9          6           0        1.084221   -1.196510    1.411426
     10          1           0        1.069907   -1.181462    2.498528
     11          6           0        0.358624   -2.190769    0.718034
     12          1           0       -0.210236   -2.935653    1.266932
     13          6           0        0.358347   -2.191224   -0.716447
     14          1           0       -0.210685   -2.936533   -1.264595
     15          6           0        1.083958   -1.197707   -1.410901
     16          1           0        1.069279   -1.183463   -2.498006
     17          6           0        1.831422   -0.176915   -0.714162
     18          6           0        2.629253    0.827267   -1.517141
     19          1           0        3.689581    0.536937   -1.546794
     20          1           0        2.567037    1.832422   -1.088410
     21          1           0        2.258940    0.876448   -2.546466
     22          6           0        2.629913    0.828304    1.515728
     23          1           0        3.690184    0.537756    1.545467
     24          1           0        2.259784    0.878448    2.545075
     25          1           0        2.567874    1.833116    1.086166
 ---------------------------------------------------------------------

 The electronic state is 1-A.
 Alpha  occ. eigenvalues --  -18.94570 -18.94569 -18.94484 -10.07587 -10.07585
 Alpha  occ. eigenvalues --  -10.07529 -10.05389 -10.05362 -10.04754 -10.04730
 Alpha  occ. eigenvalues --  -10.04625 -10.04621 -10.01952 -10.01949  -2.34120
 Alpha  occ. eigenvalues --   -1.41023  -1.39374  -1.39372  -1.01254  -1.01218
 Alpha  occ. eigenvalues --   -1.01167  -0.83725  -0.75573  -0.74240  -0.67669
 Alpha  occ. eigenvalues --   -0.65262  -0.58432  -0.55972  -0.49527  -0.49106
 Alpha  occ. eigenvalues --   -0.47744  -0.47598  -0.45509  -0.44236  -0.42332
 Alpha  occ. eigenvalues --   -0.41459  -0.40148  -0.38991  -0.38372  -0.37439
 Alpha  occ. eigenvalues --   -0.37404  -0.37280  -0.37084  -0.36884  -0.36607
 Alpha  occ. eigenvalues --   -0.36588  -0.35843  -0.35364  -0.35305  -0.33783
 Alpha  occ. eigenvalues --   -0.33366  -0.33020  -0.28527  -0.27566  -0.18485
 Alpha  occ. eigenvalues --   -0.18226  -0.18083
 Alpha virt. eigenvalues --   -0.06806  -0.06663  -0.03246  -0.03080  -0.00636
 Alpha virt. eigenvalues --   -0.00489   0.00700   0.00933   0.02828   0.03214
 Alpha virt. eigenvalues --    0.03362   0.03834   0.03902   0.05564   0.05818

 Mulliken charges:
               1
     1  Mo  -0.052325
     2  O   -0.292974
     3  O   -0.290489
     4  O   -0.292988
     5  C    0.212502
     6  C    0.220825
     7  C    0.212511
     8  C    0.050374
     9  C   -0.133659
    10  H    0.147496
    11  C   -0.117155
    12  H    0.155778
    13  C   -0.117529
    14  H    0.155782
    15  C   -0.133341
    16  H    0.147491
    17  C    0.050041
    18  C   -0.392746
    19  H    0.140604
    20  H    0.147726
    21  H    0.143268
    22  C   -0.392747
    23  H    0.140588
    24  H    0.143265
    25  H    0.147703
 Sum of Mulliken charges =  -0.00000

 Dipole moment (field-independent basis, Debye):
    X=              5.8053    Y=             -3.1426    Z=              0.0002  Tot=              6.6013
 Quadrupole moment (field-independent basis, Debye-Ang):
   XX=           -104.9363   YY=           -101.5980   ZZ=           -100.6056
   XY=              3.8844   XZ=             -0.0019   YZ=             -0.0007

 Normal termination of Gaussian 16 at Mon Mar 25 08:54:07 2024.
