 Gaussian 16, Revision C.01,
 Gaussian 16:  ES64L-G16RevC.01  3-Jul-2019

 -------------------------------------------------------
 #n TPSSTPSS/Gen Pseudo=Read EmpiricalDispersion=GD3 opt
 -------------------------------------------------------

 -----
 Title
 -----
 Symbolic Z-matrix:
 Charge =  0 Multiplicity = 1

 SCF Done:  E(RTPSS-TPSS) =  -1312.67144673     A.U. after   13 cycles
 SCF Done:  E(RTPSS-TPSS) =  -1312.72388646     A.U. after   11 cycles
 SCF Done:  E(RTPSS-TPSS) =  -1312.73549882     A.U. after   11 cycles
 SCF Done:  E(RTPSS-TPSS) =  -1312.73320437     A.U. after   12 cycles
 SCF Done:  E(RTPSS-TPSS) =  -1312.73587122     A.U. after   10 cycles
 SCF Done:  E(RTPSS-TPSS) =  -1312.73587515     A.U. after    9 cycles
 SCF Done:  E(RTPSS-TPSS) =  -1312.73587567     A.U. after    8 cycles
 Optimization completed.
    -- Stationary point found.

                         Standard orientation:
 ---------------------------------------------------------------------
 Center     Atomic      Atomic             Coordinates (Angstroms)
 Number     Number       Type             X           Y           Z
 ---------------------------------------------------------------------
      1         46           0        0.000000    0.000000    0.000000
      2         17           0       -0.673118    1.483707    1.707714
      3          7           0        1.319796   -0.812179    1.224469
      4          6           0        2.097538   -1.292093    1.942368
      5          6           0        3.074442   -1.894064    2.841392
      6          1           0        3.620821   -2.685002    2.315184
      7          1           0        2.561286   -2.323127    3.709616
      8          1           0        3.781639   -1.129577    3.183014
      9         17           0        0.673118   -1.483707   -1.707714
     10          7           0       -1.319796    0.812179   -1.224469
     11          6           0       -2.097538    1.292093   -1.942368
     12          6           0       -3.074442    1.894064   -2.841392
     13          1           0       -3.620821    2.685002   -2.315184
     14          1           0       -2.561286    2.323127   -3.709616
     15          1           0       -3.781639    1.129577   -3.183014
 ---------------------------------------------------------------------

 The electronic state is 1-AG.
 Alpha  occ. eigenvalues -- -100.91658-100.91656 -14.18729 -14.18727 -10.09211
 Alpha  occ. eigenvalues --  -10.09211 -10.07590 -10.07590  -9.16697  -9.16691
 Alpha  occ. eigenvalues --   -6.94636  -6.94635  -6.93813  -6.93811  -6.93785
 Alpha  occ. eigenvalues --   -6.93784  -3.25953  -2.03038  -2.01789  -1.97571
 Alpha  occ. eigenvalues --   -0.89383  -0.89158  -0.75095  -0.75033  -0.67687
 Alpha  occ. eigenvalues --   -0.66911  -0.52892  -0.50668  -0.47121  -0.44865
 Alpha  occ. eigenvalues --   -0.44862  -0.44829  -0.44806  -0.42041  -0.36687
 Alpha  occ. eigenvalues --   -0.35682  -0.34415  -0.34359  -0.32845  -0.27512
 Alpha  occ. eigenvalues --   -0.27225  -0.24865  -0.24359  -0.22230  -0.21904
 Alpha  occ. eigenvalues --   -0.21671  -0.20042  -0.18847
 Alpha virt. eigenvalues --   -0.11850  -0.05329  -0.04296  -0.02772  -0.02761
 Alpha virt. eigenvalues --    0.00608   0.03425   0.03684   0.05044   0.07972
 Alpha virt. eigenvalues --    0.10747   0.11789   0.12335   0.12335   0.12392

 Mulliken charges:
               1
     1  Pd   0.269837
     2  Cl  -0.310468
     3  N   -0.340454
     4  C    0.316833
     5  C   -0.395392
     6  H    0.199298
     7  H    0.197583
     8  H    0.197681
     9  Cl  -0.310468
    10  N   -0.340454
    11  C    0.316833
    12  C   -0.395392
    13  H    0.199298
    14  H    0.197583
    15  H    0.197681
 Sum of Mulliken charges =  -0.00000

 Dipole moment (field-independent basis, Debye):
    X=              0.0000    Y=              0.0000    Z=              0.0000  Tot=              0.0000
 Quadrupole moment (field-independent basis, Debye-Ang):
   XX=            -52.0564   YY=            -76.8755   ZZ=            -64.7715
   XY=            -15.4867   XZ=             32.0973   YZ=            -25.8916

 Normal termination of Gaussian 16 at Sun Mar 24 15:43:07 2024.
