 Gaussian 16, Revision C.01,
 Gaussian 16:  ES64L-G16RevC.01  3-Jul-2019

 -------------------------------------------------------
 #n TPSSTPSS/Gen Pseudo=Read EmpiricalDispersion=GD3 opt
 -------------------------------------------------------

 -----
 Title
 -----
 Symbolic Z-matrix:
 Charge =  0 Multiplicity = 1

 SCF Done:  E(RTPSS-TPSS) =  -1430.86081628     A.U. after   17 cycles
 SCF Done:  E(RTPSS-TPSS) =  -1430.90458852     A.U. after   13 cycles
 SCF Done:  E(RTPSS-TPSS) =  -1430.91059127     A.U. after   13 cycles
 SCF Done:  E(RTPSS-TPSS) =  -1430.91227848     A.U. after   12 cycles
 SCF Done:  E(RTPSS-TPSS) =  -1430.91265166     A.U. after   12 cycles
 SCF Done:  E(RTPSS-TPSS) =  -1430.91277906     A.U. after   11 cycles
 SCF Done:  E(RTPSS-TPSS) =  -1430.91280278     A.U. after   11 cycles
 SCF Done:  E(RTPSS-TPSS) =  -1430.91280776     A.U. after   10 cycles
 SCF Done:  E(RTPSS-TPSS) =  -1430.91280872     A.U. after    9 cycles
 Optimization completed.
    -- Stationary point found.

                         Standard orientation:
 ---------------------------------------------------------------------
 Center     Atomic      Atomic             Coordinates (Angstroms)
 Number     Number       Type             X           Y           Z
 ---------------------------------------------------------------------
      1         44           0        0.000035    0.109272   -0.070462
      2         17           0        1.727358   -1.589117    0.111942
      3         17           0       -1.728153   -1.588083    0.113034
      4          8           0        0.001154    0.522143    2.957302
      5          8           0       -2.298189    2.105221   -0.584107
      6          8           0        2.298778    2.104542   -0.584489
      7          8           0       -0.000844   -0.624381   -2.146888
      8          6           0        0.000657    0.399943    1.810320
      9          6           0       -1.431972    1.367263   -0.386294
     10          6           0        1.432416    1.366689   -0.387247
     11          1           0       -0.777214   -1.229414   -2.039797
     12          1           0        0.775418   -1.229706   -2.039702
 ---------------------------------------------------------------------

 The electronic state is 1-A.
 Alpha  occ. eigenvalues -- -100.95649-100.95648 -19.03305 -19.03304 -19.03273
 Alpha  occ. eigenvalues --  -18.99628 -10.16759 -10.16426 -10.16423  -9.20686
 Alpha  occ. eigenvalues --   -9.20684  -6.98515  -6.98514  -6.97911  -6.97910
 Alpha  occ. eigenvalues --   -6.97775  -6.97773  -2.87854  -1.79127  -1.78689
 Alpha  occ. eigenvalues --   -1.78475  -1.10411  -1.10372  -1.10363  -1.01999
 Alpha  occ. eigenvalues --   -0.71894  -0.71304  -0.57333  -0.56107  -0.56092
 Alpha  occ. eigenvalues --   -0.54571  -0.47469  -0.46742  -0.46684  -0.46153
 Alpha  occ. eigenvalues --   -0.45824  -0.45821  -0.44577  -0.44513  -0.44289
 Alpha  occ. eigenvalues --   -0.42235  -0.37634  -0.32668  -0.31876  -0.31540
 Alpha  occ. eigenvalues --   -0.30836  -0.30155  -0.26172  -0.25193  -0.24590
 Alpha  occ. eigenvalues --   -0.24217
 Alpha virt. eigenvalues --   -0.12868  -0.11423  -0.09022  -0.08324  -0.08200
 Alpha virt. eigenvalues --   -0.08001  -0.07545  -0.07281  -0.00461   0.01819
 Alpha virt. eigenvalues --    0.02388   0.03533   0.11026   0.11781   0.18254

 Mulliken charges:
               1
     1  Ru  -0.040774
     2  Cl  -0.219450
     3  Cl  -0.219419
     4  O   -0.204586
     5  O   -0.207829
     6  O   -0.207799
     7  O   -0.488045
     8  C    0.318857
     9  C    0.264225
    10  C    0.264209
    11  H    0.370305
    12  H    0.370306
 Sum of Mulliken charges =  -0.00000

 Dipole moment (field-independent basis, Debye):
    X=              0.0004    Y=              3.3547    Z=             -1.7410  Tot=              3.7795
 Quadrupole moment (field-independent basis, Debye-Ang):
   XX=            -91.4817   YY=            -87.7502   ZZ=            -80.5093
   XY=              0.0038   XZ=              0.0042   YZ=              5.9374

 Normal termination of Gaussian 16 at Mon Mar 25 08:25:38 2024.
